VARIABLES="X","Y","Z"
 zone n=    474,e=    866,DATAPACKING=point,zonetype=fetriangle
         0.287110400000       -0.059971480000        0.000000000000
         0.259123200000       -0.059613700000        0.000000000000
         0.232086600000       -0.058862760000        0.000000000000
         0.206107400000       -0.057711860000        0.000000000000
         0.181288000000       -0.056158870000        0.000000000000
         0.157726400000       -0.054206480000        0.000000000000
         0.135515700000       -0.051862100000        0.000000000000
         0.114743400000       -0.049137590000        0.000000000000
         0.095491500000       -0.046048830000        0.000000000000
         0.077836040000       -0.042615140000        0.000000000000
         0.061846660000       -0.038858530000        0.000000000000
         0.047586470000       -0.034802850000        0.000000000000
         0.035111760000       -0.030472870000        0.000000000000
         0.024471740000       -0.025893310000        0.000000000000
         0.015708420000       -0.021087910000        0.000000000000
         0.008856375000       -0.016078480000        0.000000000000
         0.003942649000       -0.010884170000        0.000000000000
         0.000986635800       -0.005520718000        0.000000000000
         0.000000000000        0.000000000000        0.000000000000
         0.000986635800        0.005520718000        0.000000000000
         0.003942649000        0.010884170000        0.000000000000
         0.008856375000        0.016078480000        0.000000000000
         0.015708420000        0.021087910000        0.000000000000
         0.024471740000        0.025893310000        0.000000000000
         0.035111760000        0.030472870000        0.000000000000
         0.047586470000        0.034802850000        0.000000000000
         0.061846660000        0.038858530000        0.000000000000
         0.077836040000        0.042615140000        0.000000000000
         0.095491500000        0.046048830000        0.000000000000
         0.114743400000        0.049137590000        0.000000000000
         0.135515700000        0.051862100000        0.000000000000
         0.157726400000        0.054206480000        0.000000000000
         0.181288000000        0.056158870000        0.000000000000
        46.984630000000       17.101010000000        0.000000000000
        38.302220000000       32.139380000000        0.000000000000
        25.000000000000       43.301270000000        0.000000000000
         8.682409000000       49.240390000000        0.000000000000
        -8.682409000000       49.240390000000        0.000000000000
       -25.000000000000       43.301270000000        0.000000000000
       -38.302220000000       32.139380000000        0.000000000000
       -46.984630000000       17.101010000000        0.000000000000
       -50.000000000000        0.000000000000        0.000000000000
       -46.984630000000      -17.101010000000        0.000000000000
       -38.302220000000      -32.139380000000        0.000000000000
       -25.000000000000      -43.301270000000        0.000000000000
        -8.682409000000      -49.240390000000        0.000000000000
         8.682409000000      -49.240390000000        0.000000000000
        25.000000000000      -43.301270000000        0.000000000000
        38.302220000000      -32.139380000000        0.000000000000
        46.984630000000      -17.101010000000        0.000000000000
        50.000000000000       -0.000000000000        0.000000000000
         0.015172840000       -0.032457880000        0.000000000000
         0.066023830000       -0.056985460000        0.000000000000
         0.025075580000       -0.039140510000        0.000000000000
         0.244836600000       -0.086900710000        0.000000000000
         0.192110000000       -0.082309370000        0.000000000000
         0.144227300000       -0.075712620000        0.000000000000
         0.101969600000       -0.067213420000        0.000000000000
         0.001018887000       -0.018571300000        0.000000000000
         0.036969780000       -0.045254760000        0.000000000000
         0.083168760000       -0.062302730000        0.000000000000
         0.167512300000       -0.079257020000        0.000000000000
         0.217919800000       -0.084858710000        0.000000000000
         0.272750600000       -0.088436180000        0.000000000000
         0.122349900000       -0.071692020000        0.000000000000
        -0.005254839000       -0.003787641000        0.000000000000
         0.007193023000        0.025544600000        0.000000000000
        -0.005254839000        0.003787641000        0.000000000000
         0.025075580000        0.039140510000        0.000000000000
         0.101969600000        0.067213420000        0.000000000000
         0.144227300000        0.075712620000        0.000000000000
         0.015172840000        0.032457880000        0.000000000000
        -0.003185101000       -0.011316240000        0.000000000000
        -0.003185101000        0.011316240000        0.000000000000
         0.001018887000        0.018571300000        0.000000000000
         0.050603740000        0.051291810000        0.000000000000
         0.036969780000        0.045254760000        0.000000000000
         0.083168760000        0.062302730000        0.000000000000
         0.066023830000        0.056985460000        0.000000000000
         0.167512300000        0.079257020000        0.000000000000
         0.122349900000        0.071692020000        0.000000000000
         0.007193023000       -0.025544600000        0.000000000000
         0.050603740000       -0.051291810000        0.000000000000
         0.096120000000       -0.093173400000        0.000000000000
         0.067633240000       -0.082095690000        0.000000000000
        -0.003920285000        0.029164350000        0.000000000000
         0.050968090000        0.074032920000        0.000000000000
         0.003028379000        0.038413820000        0.000000000000
         0.188595900000        0.116540100000        0.000000000000
         0.096120000000        0.093173400000        0.000000000000
        -0.012829950000        0.000000000000        0.000000000000
         0.011778230000       -0.048166810000        0.000000000000
        -0.008942406000        0.019497890000        0.000000000000
         0.023197450000       -0.057420250000        0.000000000000
         0.163365200000       -0.111626300000        0.000000000000
         0.215056400000       -0.120801200000        0.000000000000
         0.271308900000       -0.127169400000        0.000000000000
         0.127876900000       -0.103149100000        0.000000000000
        -0.008942405000       -0.019497890000        0.000000000000
        -0.011890520000        0.009660704000        0.000000000000
         0.151071500000        0.109007800000        0.000000000000
         0.011778230000        0.048166810000        0.000000000000
        -0.011890520000       -0.009660704000        0.000000000000
         0.036150120000        0.065519740000        0.000000000000
         0.023197450000        0.057420250000        0.000000000000
         0.067633240000        0.082095690000        0.000000000000
         0.127876900000        0.103149100000        0.000000000000
        -0.003920285000       -0.029164350000        0.000000000000
         0.003028379000       -0.038413820000        0.000000000000
         0.036150120000       -0.065519740000        0.000000000000
         0.050968090000       -0.074032920000        0.000000000000
        -0.022725030000       -0.005838253000        0.000000000000
        -0.021581770000       -0.017925440000        0.000000000000
         0.024531190000        0.085825540000        0.000000000000
        -0.012409580000        0.042776760000        0.000000000000
        -0.005767613000        0.055106530000        0.000000000000
         0.160979300000        0.156884700000        0.000000000000
         0.130950200000        0.139825200000        0.000000000000
        -0.022725030000        0.005838250000        0.000000000000
        -0.017970660000        0.030326270000        0.000000000000
         0.010957030000       -0.074861640000        0.000000000000
         0.181034300000       -0.162279800000        0.000000000000
         0.237424400000       -0.174849800000        0.000000000000
         0.298090500000       -0.182573300000        0.000000000000
         0.069713700000       -0.118912000000        0.000000000000
         0.100580400000       -0.134510100000        0.000000000000
         0.135778900000       -0.148590200000        0.000000000000
        -0.021581770000        0.017925440000        0.000000000000
         0.004024587000        0.069407860000        0.000000000000
         0.069713700000        0.118912000000        0.000000000000
         0.047569790000        0.102311200000        0.000000000000
         0.100580400000        0.134510100000        0.000000000000
        -0.017970660000       -0.030326270000        0.000000000000
        -0.012409580000       -0.042776760000        0.000000000000
        -0.005767613000       -0.055106530000        0.000000000000
         0.039371340000       -0.096823420000        0.000000000000
        -0.021222330000        0.076191520000        0.000000000000
        -0.035603970000       -0.028734870000        0.000000000000
         0.114588100000        0.186699900000        0.000000000000
         0.169035100000        0.224438400000        0.000000000000
        -0.036502730000        0.013239070000        0.000000000000
        -0.036482310000       -0.000000002803        0.000000000000
        -0.029590950000        0.051366970000        0.000000000000
        -0.036502720000       -0.013239070000        0.000000000000
         0.194818400000       -0.233213800000        0.000000000000
         0.258701100000       -0.249846400000        0.000000000000
         0.141065800000       -0.212760600000        0.000000000000
         0.063832550000       -0.168889700000        0.000000000000
         0.098271800000       -0.191317300000        0.000000000000
        -0.035603970000        0.028734880000        0.000000000000
         0.063832550000        0.168889700000        0.000000000000
        -0.005035415000        0.101740100000        0.000000000000
         0.025418030000        0.132216400000        0.000000000000
        -0.027027730000       -0.058605340000        0.000000000000
        -0.032154160000       -0.044128600000        0.000000000000
        -0.017214380000       -0.081754430000        0.000000000000
         0.005373023000       -0.111448500000        0.000000000000
         0.031334180000       -0.139748300000        0.000000000000
        -0.050653810000       -0.058825640000        0.000000000000
         0.138183900000       -0.301194300000        0.000000000000
         0.007752813000        0.189176200000        0.000000000000
        -0.056276080000       -0.041451010000        0.000000000000
        -0.056052720000        0.022146940000        0.000000000000
        -0.056052720000       -0.022146930000        0.000000000000
        -0.055533790000       -0.000000002975        0.000000000000
        -0.052267280000        0.072834250000        0.000000000000
         0.169982100000        0.308779800000        0.000000000000
         0.203315100000       -0.331576400000        0.000000000000
         0.068445560000       -0.247256200000        0.000000000000
        -0.055111140000        0.046032490000        0.000000000000
         0.083043980000        0.253945000000        0.000000000000
        -0.021128800000        0.148274900000        0.000000000000
        -0.042480970000        0.107562500000        0.000000000000
        -0.049297330000       -0.081700440000        0.000000000000
        -0.036019310000       -0.119496600000        0.000000000000
        -0.015546440000       -0.156697000000        0.000000000000
         0.010919720000       -0.195206100000        0.000000000000
        -0.057832980000        0.204840500000        0.000000000000
        -0.081000600000       -0.065277530000        0.000000000000
         0.126545100000       -0.411147600000        0.000000000000
         0.158611000000        0.437092000000        0.000000000000
         0.043233210000       -0.351906700000        0.000000000000
        -0.084006710000       -0.031476820000        0.000000000000
        -0.081915780000       -0.010461380000        0.000000000000
        -0.081915780000        0.010461380000        0.000000000000
         0.230983300000       -0.470928100000        0.000000000000
        -0.086506520000        0.062915520000        0.000000000000
        -0.084150580000        0.035215900000        0.000000000000
         0.071958820000        0.367855600000        0.000000000000
        -0.073989760000        0.150043200000        0.000000000000
        -0.086081670000        0.101106000000        0.000000000000
        -0.082462820000       -0.114582100000        0.000000000000
        -0.072005240000       -0.163534800000        0.000000000000
        -0.055367960000       -0.212414400000        0.000000000000
        -0.011095000000       -0.277350600000        0.000000000000
        -0.010028340000        0.285695300000        0.000000000000
        -0.130951700000        0.196618700000        0.000000000000
        -0.112947400000       -0.008963460000        0.000000000000
        -0.132965300000        0.082529980000        0.000000000000
         0.098940280000       -0.580492700000        0.000000000000
        -0.122258300000       -0.051912810000        0.000000000000
        -0.128218700000       -0.088551140000        0.000000000000
         0.006119278000       -0.492303000000        0.000000000000
         0.268320700000       -0.663208700000        0.000000000000
        -0.121750800000        0.032662640000        0.000000000000
         0.186638200000        0.626134600000        0.000000000000
         0.026015710000        0.514197800000        0.000000000000
        -0.135209600000        0.139207500000        0.000000000000
        -0.135523400000       -0.151510600000        0.000000000000
        -0.130335100000       -0.210660000000        0.000000000000
        -0.108096700000       -0.295925100000        0.000000000000
        -0.071142470000       -0.378178800000        0.000000000000
        -0.197890300000       -0.112371200000        0.000000000000
         0.084267990000       -0.825318800000        0.000000000000
        -0.048032500000        0.405606700000        0.000000000000
        -0.209331300000        0.173568200000        0.000000000000
        -0.075781380000       -0.671447300000        0.000000000000
        -0.178545200000       -0.061559840000        0.000000000000
        -0.200064900000        0.108256300000        0.000000000000
        -0.107780100000        0.288601300000        0.000000000000
         0.325841100000       -0.925530700000        0.000000000000
        -0.179825300000        0.045797140000        0.000000000000
        -0.164512200000       -0.009047340000        0.000000000000
         0.212546200000        0.885442600000        0.000000000000
        -0.009619536000        0.736542400000        0.000000000000
        -0.159049900000       -0.520906900000        0.000000000000
        -0.214662200000       -0.188254600000        0.000000000000
        -0.215792400000       -0.278481000000        0.000000000000
        -0.204573600000       -0.388697500000        0.000000000000
        -0.341509400000       -0.509791000000        0.000000000000
         0.441853000000       -1.273963000000        0.000000000000
        -0.304266300000       -0.699530000000        0.000000000000
        -0.295580400000        0.128018000000        0.000000000000
        -0.172894000000       -0.932632300000        0.000000000000
        -0.141856600000        0.549127500000        0.000000000000
        -0.297180700000       -0.130221000000        0.000000000000
        -0.247982800000       -0.034313300000        0.000000000000
        -0.194191700000        0.406483900000        0.000000000000
        -0.205093500000        0.271100000000        0.000000000000
         0.083037900000       -1.169561000000        0.000000000000
        -0.262572600000        0.053492040000        0.000000000000
         0.267225400000        1.241182000000        0.000000000000
        -0.058798850000        1.050111000000        0.000000000000
        -0.327630100000       -0.231959800000        0.000000000000
        -0.348728300000       -0.347691500000        0.000000000000
        -0.432646300000       -0.145103500000        0.000000000000
        -0.556221400000       -0.650460600000        0.000000000000
        -0.282567100000        0.812139500000        0.000000000000
        -0.377053800000        0.047360520000        0.000000000000
         0.692739800000       -1.702687000000        0.000000000000
        -0.329765200000        0.537147600000        0.000000000000
        -0.532117300000       -0.437069000000        0.000000000000
        -0.499399800000       -0.963074400000        0.000000000000
         0.138288000000       -1.648472000000        0.000000000000
        -0.337151000000        0.349864800000        0.000000000000
        -0.309506300000        0.237103400000        0.000000000000
        -0.291506200000       -1.317452000000        0.000000000000
        -0.364943000000       -0.034888460000        0.000000000000
         0.432888700000        1.710804000000        0.000000000000
        -0.102314100000        1.498043000000        0.000000000000
        -0.492696000000       -0.261656800000        0.000000000000
        -0.767518800000       -1.358534000000        0.000000000000
         1.266060000000       -2.001763000000        0.000000000000
         0.356095500000       -2.283251000000        0.000000000000
        -0.806991500000       -0.514077100000        0.000000000000
        -0.390156400000       -1.890069000000        0.000000000000
        -0.449341600000        0.214497300000        0.000000000000
        -0.858934500000       -0.866953700000        0.000000000000
        -0.444557800000        1.198766000000        0.000000000000
        -0.725552900000       -0.301461500000        0.000000000000
        -0.519460600000        0.450841500000        0.000000000000
        -0.619262700000       -0.122702200000        0.000000000000
        -0.523399700000       -0.013453170000        0.000000000000
         0.852674600000        2.236028000000        0.000000000000
        -0.048267540000        2.141622000000        0.000000000000
        -1.088196000000       -1.985919000000        0.000000000000
        -0.664263100000        0.879463900000        0.000000000000
        -0.884561100000       -0.085935740000        0.000000000000
        -0.621056900000        1.792840000000        0.000000000000
        -0.362745300000       -2.742821000000        0.000000000000
         1.041316000000       -2.886797000000        0.000000000000
        -1.286433000000       -1.200742000000        0.000000000000
        -0.538991900000        0.714277900000        0.000000000000
        -1.204698000000       -0.635796500000        0.000000000000
        -1.042279000000       -0.302049600000        0.000000000000
        -0.668368500000        0.216777100000        0.000000000000
        -0.720906900000        0.063170950000        0.000000000000
         0.319329900000        2.979713000000        0.000000000000
         1.944411000000       -2.401293000000        0.000000000000
         0.289859000000       -3.260022000000        0.000000000000
        -0.898844200000        1.276113000000        0.000000000000
        -0.801178700000        0.515775100000        0.000000000000
        -1.238773000000        0.006957501000        0.000000000000
        -1.500547000000       -0.285426900000        0.000000000000
        -0.656236000000        2.730793000000        0.000000000000
        -1.862748000000       -1.763861000000        0.000000000000
        -1.360962000000       -2.973455000000        0.000000000000
        -1.779307000000       -0.841048900000        0.000000000000
        -0.990887700000        0.195128400000        0.000000000000
         1.351956000000        3.013028000000        0.000000000000
         0.800598200000        4.082638000000        0.000000000000
        -1.325779000000        2.025978000000        0.000000000000
        -0.423308600000        3.854079000000        0.000000000000
         1.949032000000       -3.492572000000        0.000000000000
         1.152590000000       -4.053948000000        0.000000000000
        -0.658574300000       -3.839359000000        0.000000000000
        -1.720033000000        0.174456400000        0.000000000000
        -2.177526000000       -0.293520000000        0.000000000000
        -2.601008000000       -1.231929000000        0.000000000000
        -1.131686000000        0.870717400000        0.000000000000
        -1.273501000000        0.472187200000        0.000000000000
         2.328261000000       -4.876252000000        0.000000000000
         0.166845500000       -4.603390000000        0.000000000000
        -1.633494000000        3.262198000000        0.000000000000
         2.864053000000        2.695493000000        0.000000000000
         2.112521000000        4.081991000000        0.000000000000
        -1.475878000000        1.337971000000        0.000000000000
        -2.669079000000       -2.515470000000        0.000000000000
         2.931886000000       -2.942761000000        0.000000000000
        -0.074363800000        5.376739000000        0.000000000000
        -1.982301000000       -4.195288000000        0.000000000000
        -2.429579000000        0.410498200000        0.000000000000
        -3.185810000000       -0.403263300000        0.000000000000
        -1.730262000000        0.798323600000        0.000000000000
        -2.429750000000        2.407590000000        0.000000000000
        -1.652738000000        4.852275000000        0.000000000000
        -1.081929000000       -5.365032000000        0.000000000000
        -2.148752000000        1.845145000000        0.000000000000
         1.404292000000       -5.664497000000        0.000000000000
         3.890077000000        2.283844000000        0.000000000000
         3.618062000000        4.001121000000        0.000000000000
        -3.760993000000       -1.619918000000        0.000000000000
         1.570067000000        5.595391000000        0.000000000000
        -3.659071000000       -3.900520000000        0.000000000000
        -3.521239000000        0.666716400000        0.000000000000
        -2.337904000000        1.310813000000        0.000000000000
        -3.003496000000        3.865930000000        0.000000000000
         0.486773400000        7.449571000000        0.000000000000
         3.172708000000        5.517497000000        0.000000000000
        -3.024361000000       -5.799117000000        0.000000000000
         4.003916000000       -4.338412000000        0.000000000000
        -1.445184000000        6.864934000000        0.000000000000
         3.013130000000       -6.614698000000        0.000000000000
         4.876045000000        1.473613000000        0.000000000000
        -4.548611000000       -0.348052800000        0.000000000000
        -3.020752000000        1.853185000000        0.000000000000
        -0.837133200000       -7.557067000000        0.000000000000
         2.674512000000        7.604670000000        0.000000000000
        -5.298630000000       -5.504024000000        0.000000000000
        -3.391586000000        5.911124000000        0.000000000000
        -5.392589000000       -2.309106000000        0.000000000000
        -3.531880000000        2.990262000000        0.000000000000
         5.522239000000        0.179850600000        0.000000000000
         5.422074000000       -6.309455000000        0.000000000000
         5.226657000000        3.167352000000        0.000000000000
        -1.222475000000        9.613420000000        0.000000000000
         5.163519000000        5.278603000000        0.000000000000
        -5.019383000000        1.156016000000        0.000000000000
        -7.672264000000       -3.974989000000        0.000000000000
         6.298021000000       -4.183512000000        0.000000000000
        -4.541737000000        4.196865000000        0.000000000000
         1.107645000000       -8.003875000000        0.000000000000
         4.755182000000        7.342384000000        0.000000000000
        -3.753585000000        8.528503000000        0.000000000000
        -3.979326000000       -8.333126000000        0.000000000000
         4.543935000000       -9.037464000000        0.000000000000
         6.611055000000        1.761719000000        0.000000000000
         1.641701000000       10.278620000000        0.000000000000
         7.264061000000        4.284851000000        0.000000000000
         5.106083000000       -1.616970000000        0.000000000000
        -6.503231000000       -0.356871500000        0.000000000000
         4.074737000000       10.328480000000        0.000000000000
        -0.598927500000       13.427370000000        0.000000000000
        -7.655859000000       -7.632253000000        0.000000000000
         7.844073000000       -8.594430000000        0.000000000000
        -3.820975000000       12.180720000000        0.000000000000
         7.198447000000       -0.552613800000        0.000000000000
        -7.197386000000        1.808086000000        0.000000000000
         7.406531000000        6.952277000000        0.000000000000
         4.868811000000       -3.116551000000        0.000000000000
        -6.016534000000        6.599932000000        0.000000000000
         8.229252000000       -6.222662000000        0.000000000000
        -1.107453000000      -10.611890000000        0.000000000000
         1.946159000000      -11.445110000000        0.000000000000
         9.178522000000        2.443306000000        0.000000000000
         7.366611000000       -2.127196000000        0.000000000000
        11.487450000000       -7.968961000000        0.000000000000
       -11.027230000000       -5.818706000000        0.000000000000
        -5.454061000000        2.905542000000        0.000000000000
         9.573460000000       -1.095236000000        0.000000000000
        -9.165610000000       -0.016753140000        0.000000000000
         6.227630000000      -12.699120000000        0.000000000000
        -7.134839000000       10.154290000000        0.000000000000
        10.264760000000        5.457584000000        0.000000000000
        -7.324279000000        4.143264000000        0.000000000000
         2.785677000000       13.843490000000        0.000000000000
        -3.874806000000       17.106980000000        0.000000000000
         7.017458000000        9.884384000000        0.000000000000
        -5.586690000000      -11.775330000000        0.000000000000
        -0.621906000000      -14.844540000000        0.000000000000
         8.997727000000       -4.280637000000        0.000000000000
       -10.790240000000      -10.908950000000        0.000000000000
         6.143427000000       14.064510000000        0.000000000000
        12.420180000000       -3.254485000000        0.000000000000
        11.047210000000      -12.226460000000        0.000000000000
        -9.578806000000        7.086314000000        0.000000000000
        10.659250000000        9.133156000000        0.000000000000
        -8.139427000000       14.777160000000        0.000000000000
       -10.907640000000       -2.061992000000        0.000000000000
        12.655870000000        1.916804000000        0.000000000000
         3.490781000000      -15.986400000000        0.000000000000
       -10.069150000000        2.909637000000        0.000000000000
         0.493828700000       18.511980000000        0.000000000000
        -5.668828000000      -17.458350000000        0.000000000000
       -15.723270000000       -8.587985000000        0.000000000000
        16.291620000000      -10.617240000000        0.000000000000
        -3.640327000000       23.872230000000        0.000000000000
        16.349900000000       -6.481460000000        0.000000000000
        -8.946869000000       21.323130000000        0.000000000000
       -12.004860000000       11.379090000000        0.000000000000
       -15.093500000000       -3.808997000000        0.000000000000
        -0.281262000000      -20.980880000000        0.000000000000
        10.355720000000       13.363660000000        0.000000000000
         9.017883000000      -17.657960000000        0.000000000000
       -13.711600000000        5.454387000000        0.000000000000
        14.716910000000        6.389270000000        0.000000000000
        16.765470000000       -0.861508800000        0.000000000000
       -12.904760000000        0.431441600000        0.000000000000
       -14.249340000000      -16.347100000000        0.000000000000
       -18.148460000000        9.940712000000        0.000000000000
       -14.465820000000       17.403660000000        0.000000000000
        -6.722425000000      -24.951080000000        0.000000000000
        21.064670000000        4.267918000000        0.000000000000
         8.034431000000       20.025630000000        0.000000000000
        22.383150000000       -6.369861000000        0.000000000000
        15.513460000000       11.780320000000        0.000000000000
       -21.171090000000       -5.439089000000        0.000000000000
         5.512297000000      -22.478460000000        0.000000000000
        15.635100000000      -17.176060000000        0.000000000000