VARIABLES="X","Y","Z"
 zone n=    484,e=    866,DATAPACKING=point,zonetype=fetriangle
         0.999013400000       -0.000143315600        0.000000000000
         0.996057400000       -0.000571600000        0.000000000000
         0.991143600000       -0.001279912000        0.000000000000
         0.984291600000       -0.002260169000        0.000000000000
         0.975528300000       -0.003501362000        0.000000000000
         0.964888200000       -0.004989847000        0.000000000000
         0.952413500000       -0.006709676000        0.000000000000
         0.938153300000       -0.008642966000        0.000000000000
         0.922164000000       -0.010770270000        0.000000000000
         0.904508500000       -0.013070950000        0.000000000000
         0.885256600000       -0.015523470000        0.000000000000
         0.864484300000       -0.018105720000        0.000000000000
         0.842273600000       -0.020795200000        0.000000000000
         0.818712000000       -0.023569150000        0.000000000000
         0.793892600000       -0.026404650000        0.000000000000
         0.767913400000       -0.029278590000        0.000000000000
         0.740876800000       -0.032167630000        0.000000000000
         0.712889600000       -0.035048100000        0.000000000000
         0.684062300000       -0.037895850000        0.000000000000
         0.654508500000       -0.040686180000        0.000000000000
         0.624344900000       -0.043393670000        0.000000000000
         0.593690700000       -0.045992160000        0.000000000000
         0.562666600000       -0.048454740000        0.000000000000
         0.531395300000       -0.050753870000        0.000000000000
         0.500000000000       -0.052861500000        0.000000000000
         0.468604700000       -0.054749430000        0.000000000000
         0.437333400000       -0.056389630000        0.000000000000
         0.406309300000       -0.057754720000        0.000000000000
         0.375655100000       -0.058818560000        0.000000000000
         0.345491500000       -0.059556760000        0.000000000000
         0.315937700000       -0.059947380000        0.000000000000
         0.287110400000       -0.059971480000        0.000000000000
         0.181288000000        0.056158870000        0.000000000000
         0.206107400000        0.057711860000        0.000000000000
         0.232086600000        0.058862760000        0.000000000000
         0.259123200000        0.059613700000        0.000000000000
         0.287110400000        0.059971480000        0.000000000000
         0.315937700000        0.059947380000        0.000000000000
         0.345491500000        0.059556760000        0.000000000000
         0.375655100000        0.058818560000        0.000000000000
         0.406309300000        0.057754720000        0.000000000000
         0.437333400000        0.056389630000        0.000000000000
         0.468604700000        0.054749430000        0.000000000000
         0.500000000000        0.052861500000        0.000000000000
         0.531395300000        0.050753870000        0.000000000000
         0.562666600000        0.048454740000        0.000000000000
         0.593690700000        0.045992160000        0.000000000000
         0.624344900000        0.043393670000        0.000000000000
         0.654508500000        0.040686180000        0.000000000000
         0.684062300000        0.037895850000        0.000000000000
         0.712889600000        0.035048100000        0.000000000000
         0.740876800000        0.032167630000        0.000000000000
         0.767913400000        0.029278590000        0.000000000000
         0.793892600000        0.026404650000        0.000000000000
         0.818712000000        0.023569150000        0.000000000000
         0.842273600000        0.020795200000        0.000000000000
         0.864484300000        0.018105720000        0.000000000000
         0.885256600000        0.015523470000        0.000000000000
         0.904508500000        0.013070950000        0.000000000000
         0.922164000000        0.010770270000        0.000000000000
         0.938153300000        0.008642966000        0.000000000000
         0.952413500000        0.006709676000        0.000000000000
         0.964888200000        0.004989847000        0.000000000000
         0.975528300000        0.003501362000        0.000000000000
         0.984291600000        0.002260169000        0.000000000000
         0.991143600000        0.001279912000        0.000000000000
         0.996057400000        0.000571600000        0.000000000000
         0.999013400000        0.000143315600        0.000000000000
         1.000000000000       -0.000000000000        0.000000000000
         0.217919800000        0.084858710000        0.000000000000
         0.932328700000        0.026017220000        0.000000000000
         0.994323800000       -0.005943557000        0.000000000000
         0.301548600000       -0.089323740000        0.000000000000
         0.932328700000       -0.026017220000        0.000000000000
         0.361325500000       -0.089922660000        0.000000000000
         0.999715200000       -0.001507158000        0.000000000000
         0.392066300000       -0.089524510000        0.000000000000
         0.856122100000       -0.042104600000        0.000000000000
         0.423212600000       -0.088690670000        0.000000000000
         0.454640900000       -0.087443810000        0.000000000000
         0.486226800000       -0.085808560000        0.000000000000
         0.517846200000       -0.083812930000        0.000000000000
         0.549374800000       -0.081484770000        0.000000000000
         0.580689400000       -0.078854160000        0.000000000000
         0.611667300000       -0.075948870000        0.000000000000
         0.672130800000       -0.069428420000        0.000000000000
         0.729820800000       -0.062149300000        0.000000000000
         0.783834100000       -0.054337600000        0.000000000000
         0.833322100000       -0.046213950000        0.000000000000
         0.877504400000       -0.038002310000        0.000000000000
         0.988718200000       -0.008764274000        0.000000000000
         0.915683000000       -0.029930160000        0.000000000000
         0.971726900000       -0.015101170000        0.000000000000
         0.947255700000       -0.022223890000        0.000000000000
         0.272750600000       -0.088436180000        0.000000000000
         0.997973200000       -0.003379634000        0.000000000000
         0.981176600000       -0.011823760000        0.000000000000
         0.642187500000       -0.072797490000        0.000000000000
         0.757341500000       -0.058296530000        0.000000000000
         0.701380100000       -0.065869780000        0.000000000000
         0.960405400000       -0.018576150000        0.000000000000
         0.988718200000        0.008764274000        0.000000000000
         0.272750600000        0.088436180000        0.000000000000
         0.997973200000        0.003379634000        0.000000000000
         0.192110000000        0.082309370000        0.000000000000
         0.611667300000        0.075948870000        0.000000000000
         0.244836600000        0.086900710000        0.000000000000
         0.729820800000        0.062149300000        0.000000000000
         0.672130800000        0.069428420000        0.000000000000
         0.833322100000        0.046213950000        0.000000000000
         0.783834100000        0.054337600000        0.000000000000
         0.915683000000        0.029930160000        0.000000000000
         0.877504400000        0.038002310000        0.000000000000
         0.971726900000        0.015101170000        0.000000000000
         0.947255700000        0.022223890000        0.000000000000
         0.994323800000        0.005943557000        0.000000000000
         0.981176600000        0.011823760000        0.000000000000
         0.999715200000        0.001507158000        0.000000000000
         0.897384200000        0.033934770000        0.000000000000
         0.960405400000        0.018576150000        0.000000000000
         0.809194300000        0.050300530000        0.000000000000
         0.856122100000        0.042104600000        0.000000000000
         0.701380100000        0.065869780000        0.000000000000
         0.757341500000        0.058296530000        0.000000000000
         0.580689400000        0.078854160000        0.000000000000
         0.642187500000        0.072797490000        0.000000000000
         0.517846200000        0.083812930000        0.000000000000
         0.549374800000        0.081484770000        0.000000000000
         0.454640900000        0.087443810000        0.000000000000
         0.486226800000        0.085808560000        0.000000000000
         0.392066300000        0.089524510000        0.000000000000
         0.423212600000        0.088690670000        0.000000000000
         0.331112600000        0.089861640000        0.000000000000
         0.361325500000        0.089922660000        0.000000000000
         0.301548600000        0.089323740000        0.000000000000
         0.897384200000       -0.033934770000        0.000000000000
         0.167512300000        0.079257020000        0.000000000000
         0.809194300000       -0.050300530000        0.000000000000
         0.331112600000       -0.089861640000        0.000000000000
         0.330866800000       -0.130491100000        0.000000000000
         0.995064700000       -0.014396350000        0.000000000000
         0.937170000000       -0.047643410000        0.000000000000
         0.814480900000        0.084370310000        0.000000000000
         0.920697900000        0.053911130000        0.000000000000
         0.988957200000        0.020178330000        0.000000000000
         0.188595900000        0.116540100000        0.000000000000
         0.706192900000        0.105574600000        0.000000000000
         0.393010400000       -0.131736900000        0.000000000000
         0.456656400000       -0.130549000000        0.000000000000
         0.520793800000       -0.127108300000        0.000000000000
         0.584413500000       -0.121637700000        0.000000000000
         0.646533300000       -0.114378100000        0.000000000000
         0.706192900000       -0.105574600000        0.000000000000
         0.762466600000       -0.095484350000        0.000000000000
         0.814480900000       -0.084370310000        0.000000000000
         0.861417100000       -0.072503300000        0.000000000000
         0.902531800000       -0.060167080000        0.000000000000
         0.271308900000       -0.127169400000        0.000000000000
         0.980834100000       -0.026097930000        0.000000000000
         0.988957200000       -0.020178330000        0.000000000000
         0.958793000000       -0.038289260000        0.000000000000
         0.970762700000       -0.032139910000        0.000000000000
         0.964777800000        0.035214580000        0.000000000000
         0.242631600000        0.124399600000        0.000000000000
         0.882744900000        0.066375750000        0.000000000000
         0.980834100000        0.026097930000        0.000000000000
         0.944974000000        0.044511470000        0.000000000000
         0.995064700000        0.014396350000        0.000000000000
         0.850378400000        0.075542350000        0.000000000000
         0.762466600000        0.095484350000        0.000000000000
         0.584413500000        0.121637700000        0.000000000000
         0.646533300000        0.114378100000        0.000000000000
         0.520793800000        0.127108300000        0.000000000000
         0.456656400000        0.130549000000        0.000000000000
         0.393010400000        0.131736900000        0.000000000000
         0.330866800000        0.130491100000        0.000000000000
         0.285934400000        0.128306600000        0.000000000000
         0.999032300000       -0.008766280000        0.000000000000
         1.000943000000       -0.000958709100        0.000000000000
         0.208546900000        0.169055900000        0.000000000000
         1.000943000000        0.000958709100        0.000000000000
         0.999433600000        0.025127790000        0.000000000000
         0.989048700000       -0.039364580000        0.000000000000
         0.893140800000       -0.103550800000        0.000000000000
         0.993508300000        0.034956910000        0.000000000000
         0.999032300000        0.008766280000        0.000000000000
         0.999433600000       -0.025127790000        0.000000000000
         0.160979300000        0.156884700000        0.000000000000
         0.360810700000       -0.187371900000        0.000000000000
         0.425916200000       -0.189156200000        0.000000000000
         0.491877300000       -0.187587600000        0.000000000000
         0.557633500000       -0.182867500000        0.000000000000
         0.622162100000       -0.175242800000        0.000000000000
         0.684479300000       -0.164977900000        0.000000000000
         0.743623100000       -0.152359200000        0.000000000000
         0.798680900000       -0.137697100000        0.000000000000
         0.848789600000       -0.121313600000        0.000000000000
         0.931004400000       -0.084753650000        0.000000000000
         0.958686200000       -0.067711290000        0.000000000000
         0.298090500000       -0.182573300000        0.000000000000
         0.973724800000       -0.052629720000        0.000000000000
         0.982565900000        0.047845440000        0.000000000000
         0.965592800000        0.062691600000        0.000000000000
         0.943792600000        0.077508530000        0.000000000000
         0.912926000000        0.094260040000        0.000000000000
         0.877722400000        0.110366800000        0.000000000000
         0.843143500000        0.123522600000        0.000000000000
         0.798680900000        0.137697100000        0.000000000000
         0.743623100000        0.152359200000        0.000000000000
         0.684479300000        0.164977900000        0.000000000000
         0.622162100000        0.175242800000        0.000000000000
         0.557633500000        0.182867500000        0.000000000000
         0.491877300000        0.187587600000        0.000000000000
         0.425916200000        0.189156100000        0.000000000000
         0.360810700000        0.187371900000        0.000000000000
         0.305776700000        0.183370100000        0.000000000000
         0.259549200000        0.178819500000        0.000000000000
         1.000934000000       -0.002586222000        0.000000000000
         1.000934000000        0.002586222000        0.000000000000
         1.000073000000       -0.003586476000        0.000000000000
         1.000073000000        0.003586476000        0.000000000000
         0.891577300000       -0.163897700000        0.000000000000
         0.169035100000        0.224438400000        0.000000000000
         1.002306000000       -0.000000000000        0.000000000000
         1.005396000000        0.035422470000        0.000000000000
         0.301962100000        0.254072800000        0.000000000000
         0.221081000000        0.241673400000        0.000000000000
         0.391243400000       -0.265625500000        0.000000000000
         0.460780500000       -0.267587900000        0.000000000000
         0.530466000000       -0.264782000000        0.000000000000
         0.599159400000       -0.257437000000        0.000000000000
         0.665795400000       -0.245842900000        0.000000000000
         0.729338000000       -0.230317900000        0.000000000000
         0.788779600000       -0.211222100000        0.000000000000
         0.843168000000       -0.188940000000        0.000000000000
         0.933076600000       -0.136461200000        0.000000000000
         0.965098300000       -0.109129400000        0.000000000000
         0.258701100000       -0.249846400000        0.000000000000
         0.323777900000       -0.259117500000        0.000000000000
         0.987453500000       -0.081358030000        0.000000000000
         0.996819100000       -0.063824540000        0.000000000000
         1.003428000000        0.054468290000        0.000000000000
         0.992361900000        0.076170280000        0.000000000000
         0.974655900000        0.099472170000        0.000000000000
         0.949034300000        0.123980300000        0.000000000000
         0.898040900000        0.157934100000        0.000000000000
         0.840040500000        0.190611500000        0.000000000000
         0.788779600000        0.211222100000        0.000000000000
         0.729338000000        0.230317900000        0.000000000000
         0.665795400000        0.245842900000        0.000000000000
         0.599159400000        0.257437000000        0.000000000000
         0.530466000000        0.264782000000        0.000000000000
         0.460780500000        0.267587900000        0.000000000000
         0.391243400000        0.265625500000        0.000000000000
         1.000697000000       -0.014152550000        0.000000000000
         1.003110000000       -0.038715610000        0.000000000000
         1.002547000000        0.001785500000        0.000000000000
         1.000697000000        0.014152550000        0.000000000000
         0.423156700000        0.367779300000        0.000000000000
         1.002547000000       -0.001785500000        0.000000000000
         1.010729000000        0.025459740000        0.000000000000
         0.169982100000        0.308779800000        0.000000000000
         0.461431100000       -0.367676500000        0.000000000000
         0.612422800000       -0.354823100000        0.000000000000
         0.753498500000       -0.318892800000        0.000000000000
         0.848393000000       -0.279213100000        0.000000000000
         0.903103800000       -0.245490700000        0.000000000000
         0.948947400000       -0.205570100000        0.000000000000
         0.984132700000       -0.163854000000        0.000000000000
         0.203315100000       -0.331576400000        0.000000000000
         0.312896300000       -0.354847600000        0.000000000000
         1.008084000000       -0.120848400000        0.000000000000
         1.017487000000        0.075309780000        0.000000000000
         1.012643000000        0.109958800000        0.000000000000
         0.995482400000        0.146891900000        0.000000000000
         0.958279400000        0.193134100000        0.000000000000
         0.906721600000        0.241154100000        0.000000000000
         0.815619700000        0.291376400000        0.000000000000
         0.684750500000        0.339561500000        0.000000000000
         0.537602500000        0.364314100000        0.000000000000
         0.333655400000        0.359908600000        0.000000000000
         0.246894300000        0.343287000000        0.000000000000
         1.002645000000        0.004007803000        0.000000000000
         1.002645000000       -0.004007803000        0.000000000000
         1.003871000000        0.010221180000        0.000000000000
         1.018526000000        0.036042500000        0.000000000000
         0.158611000000        0.437092000000        0.000000000000
         0.316522900000        0.485946900000        0.000000000000
         1.011270000000       -0.029216470000        0.000000000000
         1.003871000000       -0.010221180000        0.000000000000
         1.004354000000       -0.000000000000        0.000000000000
         1.010409000000        0.015639530000        0.000000000000
         0.549025400000       -0.503374000000        0.000000000000
         0.716609100000       -0.468974400000        0.000000000000
         0.848263900000       -0.412214700000        0.000000000000
         0.924812500000       -0.341953100000        0.000000000000
         0.984107900000       -0.292230300000        0.000000000000
         1.021847000000       -0.231360200000        0.000000000000
         0.230983300000       -0.470928100000        0.000000000000
         0.375258300000       -0.499104300000        0.000000000000
         1.037224000000       -0.165249900000        0.000000000000
         1.022788000000        0.050497650000        0.000000000000
         1.043132000000        0.146578900000        0.000000000000
         1.028755000000        0.211746500000        0.000000000000
         0.992139300000        0.281176800000        0.000000000000
         0.914043200000        0.362174400000        0.000000000000
         0.794665400000        0.436276200000        0.000000000000
         0.634538000000        0.490816500000        0.000000000000
         0.484704300000        0.508879200000        0.000000000000
         1.007049000000       -0.020444210000        0.000000000000
         1.006421000000       -0.006490319000        0.000000000000
         1.021426000000        0.022196200000        0.000000000000
         1.017207000000       -0.042570780000        0.000000000000
         1.006429000000       -0.015533110000        0.000000000000
         1.056097000000       -0.121101000000        0.000000000000
         1.042169000000        0.067610770000        0.000000000000
         0.582651000000        0.690885300000        0.000000000000
         1.006421000000        0.006490319000        0.000000000000
         1.004979000000        0.002652040000        0.000000000000
         1.004979000000       -0.002652040000        0.000000000000
         0.670797200000       -0.671200100000        0.000000000000
         0.850839900000       -0.599257100000        0.000000000000
         1.005535000000       -0.443459400000        0.000000000000
         1.077251000000       -0.307843900000        0.000000000000
         0.268320700000       -0.663208700000        0.000000000000
         0.457468200000       -0.691445800000        0.000000000000
         1.094689000000       -0.213459800000        0.000000000000
         1.051223000000        0.100846500000        0.000000000000
         1.095990000000        0.192410800000        0.000000000000
         1.083504000000        0.284989700000        0.000000000000
         1.041136000000        0.406566700000        0.000000000000
         0.936599700000        0.531722500000        0.000000000000
         0.773032900000        0.635097000000        0.000000000000
         0.375440500000        0.682028400000        0.000000000000
         0.186638200000        0.626134600000        0.000000000000
         1.045309000000        0.044523970000        0.000000000000
         1.019584000000        0.012757960000        0.000000000000
         1.007356000000       -0.000000000000        0.000000000000
         1.033057000000        0.031858880000        0.000000000000
         0.748688900000        0.904762100000        0.000000000000
         1.032271000000       -0.086717100000        0.000000000000
         1.025888000000       -0.030714080000        0.000000000000
         1.008898000000       -0.010920330000        0.000000000000
         1.008898000000        0.010920330000        0.000000000000
         0.850609500000       -0.859937200000        0.000000000000
         1.068460000000       -0.660638100000        0.000000000000
         1.093685000000       -0.163278200000        0.000000000000
         0.588420200000       -0.937240700000        0.000000000000
         0.325841100000       -0.925530700000        0.000000000000
         1.175015000000       -0.277103300000        0.000000000000
         1.091387000000        0.131534100000        0.000000000000
         1.174006000000        0.250064000000        0.000000000000
         1.174598000000        0.384905300000        0.000000000000
         1.108609000000        0.569158200000        0.000000000000
         0.972700800000        0.769935500000        0.000000000000
         0.468100200000        0.942535700000        0.000000000000
         0.212546200000        0.885442600000        0.000000000000
         1.021224000000       -0.066829410000        0.000000000000
         1.052208000000        0.025591170000        0.000000000000
         1.008679000000        0.003442506000        0.000000000000
         1.010887000000        0.046151070000        0.000000000000
         1.177220000000       -0.462762500000        0.000000000000
         1.013350000000       -0.016270120000        0.000000000000
         1.073540000000        0.067654630000        0.000000000000
         1.011717000000        0.006436241000        0.000000000000
         1.165327000000       -0.186946600000        0.000000000000
         0.814613000000       -1.221132000000        0.000000000000
         0.441853000000       -1.273963000000        0.000000000000
         1.094920000000        0.085283420000        0.000000000000
         1.157141000000        0.157174100000        0.000000000000
         1.033000000000        0.016368150000        0.000000000000
         1.008679000000       -0.003442506000        0.000000000000
         1.011717000000       -0.006436241000        0.000000000000
         1.017190000000       -0.020966430000        0.000000000000
         1.034685000000       -0.046260120000        0.000000000000
         1.072769000000       -0.084100940000        0.000000000000
         1.005653000000        0.015831980000        0.000000000000
         1.129732000000       -0.946328100000        0.000000000000
         1.111649000000       -0.109431100000        0.000000000000
         1.020709000000        1.103209000000        0.000000000000
         1.297251000000        0.316944700000        0.000000000000
         1.296011000000        0.532332200000        0.000000000000
         1.228540000000        0.796727800000        0.000000000000
         0.654315200000        1.264755000000        0.000000000000
         0.267225400000        1.241182000000        0.000000000000
         1.028853000000        0.005045503000        0.000000000000
         1.210900000000       -1.357481000000        0.000000000000
         1.397388000000        1.134935000000        0.000000000000
         1.049415000000        0.006794943000        0.000000000000
         1.114629000000       -0.062353680000        0.000000000000
         1.069880000000       -0.048923230000        0.000000000000
         0.692739800000       -1.702687000000        0.000000000000
         1.047429000000       -0.069289680000        0.000000000000
         1.070324000000        0.042916170000        0.000000000000
         1.015306000000       -0.011820580000        0.000000000000
         1.029915000000       -0.018366840000        0.000000000000
         1.012144000000       -0.000076729070        0.000000000000
         1.142774000000        0.112199600000        0.000000000000
         1.264246000000       -0.221915600000        0.000000000000
         1.044458000000       -0.030467430000        0.000000000000
         1.319827000000       -0.704472800000        0.000000000000
         1.251621000000        0.187996200000        0.000000000000
         1.466258000000        0.425615000000        0.000000000000
         1.495607000000        0.724074200000        0.000000000000
         1.013523000000        1.583182000000        0.000000000000
         0.432888700000        1.710804000000        0.000000000000
         1.018658000000        0.003963798000        0.000000000000
         1.284033000000       -0.353639300000        0.000000000000
         1.140910000000        0.059516540000        0.000000000000
         1.415227000000       -0.485263800000        0.000000000000
         1.266060000000       -2.001763000000        0.000000000000
         1.074239000000        0.015216240000        0.000000000000
         1.244104000000       -0.121498400000        0.000000000000
         1.215393000000        0.113784600000        0.000000000000
         1.046612000000       -0.013088620000        0.000000000000
         1.790787000000        1.011810000000        0.000000000000
         1.431815000000        0.222364000000        0.000000000000
         1.164934000000       -0.089170390000        0.000000000000
         1.101678000000       -0.024239220000        0.000000000000
         1.104539000000        0.051046310000        0.000000000000
         1.493154000000       -1.047257000000        0.000000000000
         1.018077000000       -0.004658418000        0.000000000000
         1.731181000000        0.550236500000        0.000000000000
         0.852674600000        2.236028000000        0.000000000000
         1.026064000000       -0.000865985000        0.000000000000
         1.360711000000       -0.150337900000        0.000000000000
         1.066508000000       -0.005753861000        0.000000000000
         1.647752000000        1.582723000000        0.000000000000
         1.155753000000       -0.030559160000        0.000000000000
         1.123292000000        0.014176090000        0.000000000000
         1.596324000000       -0.694440600000        0.000000000000
         1.681975000000       -1.502569000000        0.000000000000
         1.408548000000       -0.267586600000        0.000000000000
         1.319302000000        0.109007600000        0.000000000000
         1.064654000000       -0.024147970000        0.000000000000
         1.641803000000        0.291323100000        0.000000000000
         1.231621000000       -0.038963420000        0.000000000000
         1.024006000000       -0.011068830000        0.000000000000
         1.512536000000        2.052367000000        0.000000000000