TITLE     = "triangle file"
VARIABLES = "X"
"Y"
ZONE T="TRY"
 STRANDID=0, SOLUTIONTIME=0
 Nodes=2096, Elements=3966, ZONETYPE=FETriangle
 DATAPACKING=POINT
 DT=(SINGLE SINGLE )
 9.997532964E-01 -3.585498052E-05
 9.990134239E-01 -1.433155994E-04
 9.977809787E-01 -3.220699145E-04
 9.960573912E-01 -5.715999869E-04
 9.938442111E-01 -8.911862969E-04
 9.911435843E-01 -1.279911958E-03
 9.879583716E-01 -1.736670034E-03
 9.842916131E-01 -2.260169014E-03
 9.801468253E-01 -2.848942997E-03
 9.755282998E-01 -3.501361934E-03
 9.704403877E-01 -4.215640016E-03
 9.648882151E-01 -4.989847075E-03
 9.588773251E-01 -5.821920931E-03
 9.524134994E-01 -6.709675770E-03
 9.455032945E-01 -7.650821935E-03
 9.381533265E-01 -8.642965928E-03
 9.303709865E-01 -9.683633223E-03
 9.221640229E-01 -1.077026967E-02
 9.135403037E-01 -1.190027036E-02
 9.045084715E-01 -1.307095028E-02
 8.950775266E-01 -1.427960023E-02
 8.852565885E-01 -1.552347001E-02
 8.750554919E-01 -1.679977961E-02
 8.644843102E-01 -1.810571924E-02
 8.535534143E-01 -1.943847910E-02
 8.422735929E-01 -2.079520002E-02
 8.306558728E-01 -2.217305079E-02
 8.187119961E-01 -2.356914990E-02
 8.064535260E-01 -2.498064935E-02
 7.938926220E-01 -2.640465088E-02
 7.810416818E-01 -2.783826925E-02
 7.679134011E-01 -2.927858941E-02
 7.545207143E-01 -3.072269075E-02
 7.408767939E-01 -3.216762841E-02
 7.269952297E-01 -3.361042961E-02
 7.128896117E-01 -3.504810110E-02
 6.985738873E-01 -3.647759184E-02
 6.840623021E-01 -3.789585084E-02
 6.693689823E-01 -3.929977119E-02
 6.545084715E-01 -4.068617895E-02
 6.394956112E-01 -4.205190018E-02
 6.243448853E-01 -4.339367151E-02
 6.090716124E-01 -4.470821097E-02
 5.936906934E-01 -4.599215835E-02
 5.782172084E-01 -4.724214971E-02
 5.626665950E-01 -4.845473915E-02
 5.470541716E-01 -4.962648079E-02
 5.313953161E-01 -5.075386912E-02
 5.157054067E-01 -5.183338001E-02
 5.000000000E-01 -5.286150053E-02
 4.842945933E-01 -5.383469164E-02
 4.686047137E-01 -5.474942923E-02
 4.529457986E-01 -5.560223013E-02
 4.373334050E-01 -5.638962984E-02
 4.217827916E-01 -5.710823089E-02
 4.063093066E-01 -5.775472149E-02
 3.909283876E-01 -5.832587183E-02
 3.756551147E-01 -5.881856009E-02
 3.605043888E-01 -5.922979861E-02
 3.454914987E-01 -5.955675989E-02
 3.306309879E-01 -5.979678035E-02
 3.159376979E-01 -5.994737893E-02
 3.014261127E-01 -6.000630185E-02
 2.871103883E-01 -5.997148156E-02
 2.730048001E-01 -5.984112993E-02
 2.591232061E-01 -5.961370096E-02
 2.454793006E-01 -5.928790942E-02
 2.320865989E-01 -5.886276066E-02
 2.189583033E-01 -5.833755061E-02
 2.061073929E-01 -5.771185830E-02
 1.935465038E-01 -5.698556826E-02
 1.812880039E-01 -5.615887046E-02
 1.693440974E-01 -5.523224920E-02
 1.577264071E-01 -5.420647934E-02
 1.464466006E-01 -5.308264866E-02
 1.355157048E-01 -5.186209828E-02
 1.249445006E-01 -5.054645985E-02
 1.147433966E-01 -4.913758859E-02
 1.049225032E-01 -4.763760045E-02
 9.549149871E-02 -4.604883119E-02
 8.645971119E-02 -4.437378049E-02
 7.783603668E-02 -4.261514172E-02
 6.962899119E-02 -4.077573866E-02
 6.184665859E-02 -3.885852918E-02
 5.449673906E-02 -3.686653078E-02
 4.758647084E-02 -3.480285034E-02
 4.112268984E-02 -3.267059103E-02
 3.511175886E-02 -3.047287092E-02
 2.955961972E-02 -2.821277082E-02
 2.447173931E-02 -2.589331008E-02
 1.985315979E-02 -2.351742052E-02
 1.570842043E-02 -2.108790912E-02
 1.204161998E-02 -1.860743016E-02
 8.856374770E-03 -1.607847959E-02
 6.155829877E-03 -1.350336988E-02
 3.942648880E-03 -1.088417042E-02
 2.219018061E-03 -8.222747594E-03
 9.866358014E-04 -5.520718172E-03
 2.467198065E-04 -2.779436996E-03
 0.000000000E+00 0.000000000E+00
 2.467198065E-04 2.779436996E-03
 9.866358014E-04 5.520718172E-03
 2.219018061E-03 8.222747594E-03
 3.942648880E-03 1.088417042E-02
 6.155829877E-03 1.350336988E-02
 8.856374770E-03 1.607847959E-02
 1.204161998E-02 1.860743016E-02
 1.570842043E-02 2.108790912E-02
 1.985315979E-02 2.351742052E-02
 2.447173931E-02 2.589331008E-02
 2.955961972E-02 2.821277082E-02
 3.511175886E-02 3.047287092E-02
 4.112268984E-02 3.267059103E-02
 4.758647084E-02 3.480285034E-02
 5.449673906E-02 3.686653078E-02
 6.184665859E-02 3.885852918E-02
 6.962899119E-02 4.077573866E-02
 7.783603668E-02 4.261514172E-02
 8.645971119E-02 4.437378049E-02
 9.549149871E-02 4.604883119E-02
 1.049225032E-01 4.763760045E-02
 1.147433966E-01 4.913758859E-02
 1.249445006E-01 5.054645985E-02
 1.355157048E-01 5.186209828E-02
 1.464466006E-01 5.308264866E-02
 1.577264071E-01 5.420647934E-02
 1.693440974E-01 5.523224920E-02
 1.812880039E-01 5.615887046E-02
 1.935465038E-01 5.698556826E-02
 2.061073929E-01 5.771185830E-02
 2.189583033E-01 5.833755061E-02
 2.320865989E-01 5.886276066E-02
 2.454793006E-01 5.928790942E-02
 2.591232061E-01 5.961370096E-02
 2.730048001E-01 5.984112993E-02
 2.871103883E-01 5.997148156E-02
 3.014261127E-01 6.000630185E-02
 3.159376979E-01 5.994737893E-02
 3.306309879E-01 5.979678035E-02
 3.454914987E-01 5.955675989E-02
 3.605043888E-01 5.922979861E-02
 3.756551147E-01 5.881856009E-02
 3.909283876E-01 5.832587183E-02
 4.063093066E-01 5.775472149E-02
 4.217827916E-01 5.710823089E-02
 4.373334050E-01 5.638962984E-02
 4.529457986E-01 5.560223013E-02
 4.686047137E-01 5.474942923E-02
 4.842945933E-01 5.383469164E-02
 5.000000000E-01 5.286150053E-02
 5.157054067E-01 5.183338001E-02
 5.313953161E-01 5.075386912E-02
 5.470541716E-01 4.962648079E-02
 5.626665950E-01 4.845473915E-02
 5.782172084E-01 4.724214971E-02
 5.936906934E-01 4.599215835E-02
 6.090716124E-01 4.470821097E-02
 6.243448853E-01 4.339367151E-02
 6.394956112E-01 4.205190018E-02
 6.545084715E-01 4.068617895E-02
 6.693689823E-01 3.929977119E-02
 6.840623021E-01 3.789585084E-02
 6.985738873E-01 3.647759184E-02
 7.128896117E-01 3.504810110E-02
 7.269952297E-01 3.361042961E-02
 7.408767939E-01 3.216762841E-02
 7.545207143E-01 3.072269075E-02
 7.679134011E-01 2.927858941E-02
 7.810416818E-01 2.783826925E-02
 7.938926220E-01 2.640465088E-02
 8.064535260E-01 2.498064935E-02
 8.187119961E-01 2.356914990E-02
 8.306558728E-01 2.217305079E-02
 8.422735929E-01 2.079520002E-02
 8.535534143E-01 1.943847910E-02
 8.644843102E-01 1.810571924E-02
 8.750554919E-01 1.679977961E-02
 8.852565885E-01 1.552347001E-02
 8.950775266E-01 1.427960023E-02
 9.045084715E-01 1.307095028E-02
 9.135403037E-01 1.190027036E-02
 9.221640229E-01 1.077026967E-02
 9.303709865E-01 9.683633223E-03
 9.381533265E-01 8.642965928E-03
 9.455032945E-01 7.650821935E-03
 9.524134994E-01 6.709675770E-03
 9.588773251E-01 5.821920931E-03
 9.648882151E-01 4.989847075E-03
 9.704403877E-01 4.215640016E-03
 9.755282998E-01 3.501361934E-03
 9.801468253E-01 2.848942997E-03
 9.842916131E-01 2.260169014E-03
 9.879583716E-01 1.736670034E-03
 9.911435843E-01 1.279911958E-03
 9.938442111E-01 8.911862969E-04
 9.960573912E-01 5.715999869E-04
 9.977809787E-01 3.220699145E-04
 9.990134239E-01 1.433155994E-04
 9.997532964E-01 3.585498052E-05
 1.000000000E+00 -1.665334934E-17
 1.020942020E+01 2.393160105E+00
 9.354559898E+00 4.647230148E+00
 7.985109806E+00 6.631229877E+00
 6.180650234E+00 8.229840279E+00
 4.046050072E+00 9.350159645E+00
 1.705369949E+00 9.927089691E+00
 -7.053700089E-01 9.927089691E+00
 -3.046050072E+00 9.350159645E+00
 -5.180650234E+00 8.229840279E+00
 -6.985109806E+00 6.631229877E+00
 -8.354559898E+00 4.647230148E+00
 -9.209420204E+00 2.393150091E+00
 -9.500000000E+00 0.000000000E+00
 -9.209420204E+00 -2.393160105E+00
 -8.354559898E+00 -4.647230148E+00
 -6.985109806E+00 -6.631229877E+00
 -5.180650234E+00 -8.229840279E+00
 -3.046050072E+00 -9.350159645E+00
 -7.053700089E-01 -9.927089691E+00
 1.705369949E+00 -9.927089691E+00
 4.046050072E+00 -9.350159645E+00
 6.180650234E+00 -8.229840279E+00
 7.985109806E+00 -6.631219864E+00
 9.354559898E+00 -4.647230148E+00
 1.020942020E+01 -2.393160105E+00
 1.050000000E+01 0.000000000E+00
 3.087388873E-01 -7.402803004E-02
 9.684112072E-01 -9.959205985E-03
 2.942345142E-01 7.384946197E-02
 6.780728102E-01 5.280242115E-02
 3.382937014E-01 -7.406728715E-02
 1.146932039E-02 -2.340392955E-02
 1.509996951E-01 -6.455300003E-02
 9.985677004E-01 -1.408503042E-03
 2.475176938E-02 -3.201907128E-02
 9.952576160E-01 -2.856166102E-03
 4.751149972E-04 -1.124101970E-02
 9.899905920E-01 -4.573813174E-03
 1.984803937E-02 -2.920445055E-02
 9.827865958E-01 -6.548689213E-03
 1.541924011E-02 -2.633146010E-02
 9.736732244E-01 -8.765634149E-03
 9.626857042E-01 -1.120644994E-02
 1.184820980E-01 -5.970216170E-02
 9.498670101E-01 -1.385132968E-02
 1.398009956E-01 -6.304176152E-02
 9.352672100E-01 -1.667873003E-02
 1.991242021E-01 -6.950245798E-02
 9.189435840E-01 -1.966501027E-02
 1.625431031E-01 -6.595609337E-02
 9.009606838E-01 -2.278649062E-02
 1.866174042E-01 -6.843198091E-02
 8.813893199E-01 -2.601836063E-02
 2.119273990E-01 -7.046049088E-02
 8.603067994E-01 -2.933545969E-02
 2.519859076E-01 -7.265782356E-02
 8.377963901E-01 -3.271206841E-02
 2.383715063E-01 -7.203809172E-02
 8.139470220E-01 -3.612326086E-02
 2.658438087E-01 -7.316572219E-02
 7.888528705E-01 -3.954312950E-02
 3.234302104E-01 -7.409991324E-02
 7.626129985E-01 -4.294674844E-02
 9.999287724E-01 -3.768911993E-04
 7.353308201E-01 -4.630814120E-02
 9.971582294E-01 -2.097920049E-03
 7.071136832E-01 -4.960208014E-02
 9.866291881E-01 -5.530003924E-03
 6.780728102E-01 -5.280242115E-02
 9.427862763E-01 -1.524365041E-02
 6.483222842E-01 -5.588285998E-02
 8.710318804E-01 -2.766788006E-02
 6.179791093E-01 -5.881660059E-02
 8.260332942E-01 -3.441490978E-02
 5.871623755E-01 -6.157641858E-02
 7.758697867E-01 -4.124863073E-02
 5.559931993E-01 -6.413435191E-02
 7.213321924E-01 -4.796509072E-02
 5.245940089E-01 -6.646213681E-02
 6.026223898E-01 -6.021998078E-02
 4.930881858E-01 -6.853152812E-02
 5.716142058E-01 -6.288240850E-02
 4.615997076E-01 -7.031411678E-02
 5.403146148E-01 -6.532877684E-02
 4.302527905E-01 -7.178228348E-02
 4.773339927E-01 -6.946045160E-02
 3.991709948E-01 -7.290951163E-02
 4.146710038E-01 -7.239011675E-02
 3.684773147E-01 -7.367040962E-02
 8.934681118E-02 -5.399367958E-02
 8.043864369E-02 -5.187588930E-02
 7.194571942E-02 -4.966779053E-02
 4.904082045E-02 -4.253435135E-02
 5.623903126E-02 -4.499356076E-02
 3.598996997E-02 -3.738991916E-02
 4.228891060E-02 -3.999863937E-02
 4.993874114E-03 -1.742552035E-02
 3.015011922E-02 -3.471187130E-02
 7.971554063E-03 -2.046333067E-02
 2.502510091E-03 -1.434571017E-02
 9.866139293E-02 -5.601796880E-02
 6.387651712E-02 -4.737251997E-02
 5.088465810E-01 -6.753090769E-02
 4.459007978E-01 -7.108919322E-02
 9.101552963E-01 -2.121042088E-02
 6.632789969E-01 -5.435921997E-02
 3.533146083E-01 -7.393219322E-02
 -1.034699962E-03 -8.074695244E-03
 9.565023184E-01 -1.250474993E-02
 9.928675890E-01 -3.681936068E-03
 8.015494943E-01 -3.783363104E-02
 8.913689256E-01 -2.439017966E-02
 -2.069015056E-03 -4.874988925E-03
 6.926891804E-01 -5.121565983E-02
 9.994848967E-01 -7.890076959E-04
 9.273170233E-01 -1.815346070E-02
 -2.594657941E-03 1.630985993E-03
 2.250141948E-01 -7.130575180E-02
 2.475176938E-02 3.201907128E-02
 7.490956187E-01 -4.463431984E-02
 -2.594657941E-03 -1.630985993E-03
 4.993874114E-03 1.742552035E-02
 -1.034699962E-03 8.074695244E-03
 8.043864369E-02 5.187588930E-02
 1.541924011E-02 2.633146010E-02
 3.234302104E-01 7.409991324E-02
 9.866139293E-02 5.601796880E-02
 9.899905920E-01 4.573813174E-03
 3.533146083E-01 7.393219322E-02
 9.994848967E-01 7.890076959E-04
 9.952576160E-01 2.856166102E-03
 3.087388873E-01 7.402803749E-02
 2.799313962E-01 7.356250286E-02
 9.427862763E-01 1.524365041E-02
 9.684112072E-01 9.959205985E-03
 9.565023184E-01 1.250474993E-02
 9.866291881E-01 5.530003924E-03
 9.784665704E-01 7.627976127E-03
 2.942345142E-01 -7.384946197E-02
 9.985677004E-01 1.408503042E-03
 1.984803937E-02 2.920445055E-02
 4.751143861E-04 1.124101970E-02
 1.398009956E-01 6.304176152E-02
 1.184820980E-01 5.970216170E-02
 1.866174042E-01 6.843198091E-02
 1.625431031E-01 6.595609337E-02
 2.383714020E-01 7.203809172E-02
 2.119273990E-01 7.046049088E-02
 3.382937014E-01 7.406728715E-02
 2.658438087E-01 7.316572219E-02
 1.289581954E-01 6.142412126E-02
 1.744197011E-01 6.724955887E-02
 9.784665704E-01 -7.627976127E-03
 1.146932039E-02 2.340392955E-02
 2.502510091E-03 1.434571017E-02
 6.332173944E-01 -5.736979097E-02
 4.228891060E-02 3.999863937E-02
 3.015011922E-02 3.471187130E-02
 7.194571942E-02 4.966779053E-02
 5.623903126E-02 4.499356076E-02
 3.991709948E-01 7.290951163E-02
 3.684773147E-01 7.367040962E-02
 4.615997076E-01 7.031411678E-02
 4.302527905E-01 7.178228348E-02
 5.245940089E-01 6.646213681E-02
 4.930881858E-01 6.853152812E-02
 5.871623755E-01 6.157641858E-02
 5.559931993E-01 6.413435191E-02
 6.483222842E-01 5.588285998E-02
 6.179791093E-01 5.881660059E-02
 7.353308201E-01 4.630814120E-02
 7.071136832E-01 4.960208014E-02
 7.888528705E-01 3.954312950E-02
 7.626129985E-01 4.294674844E-02
 8.377963901E-01 3.271206841E-02
 8.139470220E-01 3.612326086E-02
 8.813893199E-01 2.601836063E-02
 8.603067994E-01 2.933545969E-02
 9.189435840E-01 1.966501027E-02
 9.009606838E-01 2.278649062E-02
 9.626857042E-01 1.120644994E-02
 9.352672100E-01 1.667873003E-02
 9.827865958E-01 6.548689213E-03
 9.928675890E-01 3.681936068E-03
 9.498670101E-01 1.385132968E-02
 9.736732244E-01 8.765634149E-03
 9.101552963E-01 2.121042088E-02
 9.273170233E-01 1.815346070E-02
 8.710318804E-01 2.766788006E-02
 8.913689256E-01 2.439017966E-02
 8.260332942E-01 3.441490978E-02
 8.492246270E-01 3.101792932E-02
 7.758697867E-01 4.124863073E-02
 8.015494943E-01 3.783363104E-02
 7.213321924E-01 4.796509817E-02
 7.490956187E-01 4.463431984E-02
 6.632789969E-01 5.435921997E-02
 6.926891804E-01 5.121565983E-02
 6.026223898E-01 6.021998078E-02
 6.332173944E-01 5.736979097E-02
 5.403146148E-01 6.532877684E-02
 5.716142058E-01 6.288240850E-02
 4.773339927E-01 6.946045160E-02
 5.088465810E-01 6.753090769E-02
 4.146710038E-01 7.239011675E-02
 4.459007978E-01 7.108919322E-02
 8.934681118E-02 5.399367958E-02
 3.837679923E-01 7.333721220E-02
 4.904082045E-02 4.253435135E-02
 6.387651712E-02 4.737251997E-02
 7.971554063E-03 2.046333067E-02
 3.598996997E-02 3.738991916E-02
 8.492246270E-01 -3.101792932E-02
 -2.069015987E-03 4.874988925E-03
 1.083834022E-01 5.787834898E-02
 1.991242021E-01 6.950245798E-02
 1.509996951E-01 6.455300003E-02
 2.519859076E-01 7.265782356E-02
 2.250141948E-01 7.130575180E-02
 9.999287724E-01 3.768911993E-04
 2.799313962E-01 -7.356250286E-02
 1.083834022E-01 -5.787834898E-02
 9.971582294E-01 2.097920049E-03
 1.744197011E-01 -6.724955887E-02
 1.289581954E-01 -6.142412126E-02
 3.837679923E-01 -7.333721220E-02
 1.551164985E-01 -7.886973768E-02
 9.670184255E-01 -1.733064093E-02
 8.339390159E-01 4.754611105E-02
 8.980681896E-01 -3.497296944E-02
 7.357759029E-02 -6.082820147E-02
 -4.880785942E-03 -7.550929207E-03
 -1.838112948E-03 -1.496587973E-02
 9.724463820E-01 -1.555277035E-02
 9.985917807E-01 -3.243437037E-03
 3.612070978E-01 -9.182184935E-02
 1.015334018E-02 -2.930792980E-02
 2.999461070E-02 -4.275730997E-02
 1.216968969E-01 -7.287220657E-02
 -1.838113996E-03 1.496587973E-02
 5.179905295E-01 8.571130782E-02
 2.434553951E-02 -3.959098831E-02
 1.903768070E-02 3.629530966E-02
 3.612257168E-02 4.597872123E-02
 2.867417932E-01 9.071090072E-02
 9.163821936E-01 3.086009994E-02
 8.781697154E-01 3.914431855E-02
 6.725277901E-01 7.117900252E-02
 6.425384879E-01 7.459322363E-02
 6.576130986E-01 7.291237265E-02
 5.809412003E-01 8.071754128E-02
 4.546706975E-01 8.934470266E-02
 9.407256246E-01 2.486249991E-02
 2.724161148E-01 9.010323137E-02
 9.894177914E-01 8.946727030E-03
 2.308243066E-01 8.751212060E-02
 4.114159965E-04 1.858484931E-02
 -3.607511055E-03 -1.124463044E-02
 8.237721026E-02 -6.351598352E-02
 3.459650874E-01 -9.189283848E-02
 3.159990013E-01 -9.154845029E-02
 3.919768929E-01 9.139723331E-02
 3.309007883E-01 -9.178130329E-02
 1.435074024E-02 -3.282865137E-02
 2.174690962E-01 -8.639080077E-02
 1.903768070E-02 -3.629530966E-02
 1.324761957E-01 -7.499080151E-02
 1.436198950E-01 -7.699076086E-02
 1.669541001E-01 -8.062593639E-02
 1.791210026E-01 -8.225771040E-02
 1.916044056E-01 -8.376292139E-02
 2.043914050E-01 -8.514089882E-02
 2.308243066E-01 -8.751212060E-02
 2.444431931E-01 -8.850427717E-02
 2.583116889E-01 -8.936782926E-02
 2.724161148E-01 -9.010323137E-02
 9.970477223E-01 -4.582088906E-03
 9.858949780E-01 -1.051730011E-02
 9.894177914E-01 -8.946727030E-03
 9.407256246E-01 -2.486249991E-02
 9.479734898E-01 -2.292275988E-02
 8.676503897E-01 -4.124294966E-02
 8.781697154E-01 -3.914431855E-02
 8.220211864E-01 -4.963827878E-02
 8.339390159E-01 -4.754611105E-02
 7.712610960E-01 -5.786528066E-02
 7.843896747E-01 -5.583658069E-02
 7.161703110E-01 -6.569778919E-02
 7.303025723E-01 -6.378874928E-02
 5.965055227E-01 -7.928328961E-02
 6.119698286E-01 -7.778208703E-02
 5.652921796E-01 -8.208102733E-02
 5.809412003E-01 -8.071754128E-02
 5.338013768E-01 -8.458145708E-02
 5.495737791E-01 -8.337018639E-02
 4.704808891E-01 -8.857634664E-02
 4.863147140E-01 -8.771233261E-02
 4.075374007E-01 -9.104364365E-02
 4.231834114E-01 -9.058153629E-02
 3.919768929E-01 -9.139723331E-02
 4.976338148E-02 -5.218369141E-02
 3.612256050E-02 -4.597872123E-02
 4.271470010E-02 -4.912199080E-02
 4.114159965E-04 -1.858484931E-02
 3.096129047E-03 -2.226397023E-02
 6.433081813E-03 -2.584386058E-02
 9.159286320E-02 -6.610094011E-02
 5.726217106E-02 -5.515816063E-02
 6.520295888E-02 -5.804087967E-02
 5.021563768E-01 -8.675613254E-02
 5.179905295E-01 -8.571130782E-02
 4.388996959E-01 -9.001419693E-02
 4.546706975E-01 -8.934470266E-02
 9.074279070E-01 -3.290744871E-02
 9.163821936E-01 -3.086009994E-02
 6.576130986E-01 -7.291237265E-02
 6.725277901E-01 -7.117900252E-02
 9.547758102E-01 -2.101884969E-02
 9.611263871E-01 -1.915382035E-02
 9.924538136E-01 -7.433271036E-03
 9.949986935E-01 -5.978315137E-03
 7.972341180E-01 -5.378673971E-02
 8.097820282E-01 -5.171971023E-02
 8.883122206E-01 -3.705308959E-02
 6.872686148E-01 -6.939669698E-02
 7.018210292E-01 -6.756845862E-02
 9.249219894E-01 -2.883448079E-02
 9.330391288E-01 -2.683429047E-02
 -5.679085851E-03 -3.795359982E-03
 1.435074024E-02 3.282865137E-02
 7.442042232E-01 -6.184481829E-02
 7.578616142E-01 -5.986918882E-02
 -5.948964041E-03 0.000000000E+00
 -3.607512917E-03 1.124463044E-02
 7.357759029E-02 6.082820147E-02
 9.858949780E-01 1.051730011E-02
 3.159990013E-01 9.154845029E-02
 3.012742996E-01 9.119231999E-02
 9.670184255E-01 1.733064093E-02
 9.611263871E-01 1.915382035E-02
 9.818894863E-01 1.214328036E-02
 2.867417932E-01 -9.071090072E-02
 3.012742996E-01 -9.119231254E-02
 9.970477223E-01 4.582089838E-03
 1.791210026E-01 8.225771040E-02
 1.324761957E-01 7.499080151E-02
 1.216968969E-01 7.287220657E-02
 1.669541001E-01 8.062593639E-02
 2.174690962E-01 8.639080077E-02
 3.459650874E-01 9.189283848E-02
 3.309007883E-01 9.178130329E-02
 9.774051905E-01 -1.382273994E-02
 9.818894863E-01 -1.214328036E-02
 1.015334018E-02 2.930792980E-02
 6.273190975E-01 -7.621751726E-02
 6.425384879E-01 -7.459322363E-02
 6.520295888E-02 5.804087967E-02
 2.999461070E-02 4.275730997E-02
 2.434553951E-02 3.959098831E-02
 5.726217106E-02 5.515816063E-02
 3.612070978E-01 9.182184935E-02
 3.765178025E-01 9.163933247E-02
 4.388996959E-01 9.001419693E-02
 5.021563768E-01 8.675613254E-02
 5.652921796E-01 8.208102733E-02
 6.273190975E-01 7.621751726E-02
 7.843896747E-01 5.583658069E-02
 7.303025723E-01 6.378874928E-02
 7.161703110E-01 6.569778919E-02
 7.712610960E-01 5.786528066E-02
 8.220211864E-01 4.963827878E-02
 8.676503897E-01 4.124294966E-02
 8.883122206E-01 3.705308959E-02
 9.074279070E-01 3.290744871E-02
 9.949986935E-01 5.978315137E-03
 9.924538136E-01 7.433271036E-03
 9.547758102E-01 2.101884969E-02
 9.479734898E-01 2.292275988E-02
 9.774051905E-01 1.382273994E-02
 9.724463820E-01 1.555277035E-02
 9.330391288E-01 2.683429047E-02
 9.249219894E-01 2.883448079E-02
 8.980681896E-01 3.497296944E-02
 8.567649126E-01 4.334514961E-02
 8.455240130E-01 4.544743150E-02
 8.097820282E-01 5.171971023E-02
 7.972341180E-01 5.378675088E-02
 7.578616142E-01 5.986918882E-02
 7.442042232E-01 6.184481829E-02
 7.018210292E-01 6.756845862E-02
 6.872686148E-01 6.939669698E-02
 6.119698286E-01 7.778208703E-02
 5.965055227E-01 7.928328961E-02
 5.495737791E-01 8.337018639E-02
 5.338013768E-01 8.458145708E-02
 4.863147140E-01 8.771233261E-02
 4.704808891E-01 8.857634664E-02
 4.231834114E-01 9.058153629E-02
 4.075374007E-01 9.104364365E-02
 9.159286320E-02 6.610094011E-02
 8.237721026E-02 6.351598352E-02
 4.976338893E-02 5.218369141E-02
 4.271470010E-02 4.912199080E-02
 6.433081813E-03 2.584386058E-02
 3.096129047E-03 2.226397023E-02
 8.455240130E-01 -4.544743150E-02
 8.567649126E-01 -4.334514961E-02
 -4.880787805E-03 7.550930139E-03
 -5.679085851E-03 3.795359982E-03
 1.112930998E-01 7.063773274E-02
 1.013282984E-01 6.841375679E-02
 2.043914050E-01 8.514089882E-02
 1.916044056E-01 8.376292139E-02
 1.551164985E-01 7.886973768E-02
 1.436198950E-01 7.699076086E-02
 2.583116889E-01 8.936782926E-02
 2.444431931E-01 8.850427717E-02
 1.013282984E-01 -6.841375679E-02
 1.112930998E-01 -7.063773274E-02
 9.985917807E-01 3.243436106E-03
 3.765178025E-01 -9.163933247E-02
 7.685068063E-03 -3.651303053E-02
 -8.415491320E-03 -1.083570998E-02
 1.000218987E+00 2.365198015E-04
 -1.001244038E-02 2.196217887E-03
 7.869026810E-02 -7.644440979E-02
 1.000218987E+00 -2.365198015E-04
 1.526008993E-01 -9.553478658E-02
 9.996095896E-01 -1.962330891E-03
 9.747915864E-01 -2.285685018E-02
 3.614087105E-01 -1.140180007E-01
 3.924350142E-01 -1.138992012E-01
 2.870252915E-02 -5.265438184E-02
 -7.032128982E-03 1.515427046E-02
 -4.989387933E-03 -1.943331957E-02
 1.206969004E-02 4.081435874E-02
 9.103032947E-01 -4.616706073E-02
 -9.462947026E-03 -6.562302820E-03
 2.158250064E-01 1.054608971E-01
 -2.738231095E-03 2.370229922E-02
 7.872856855E-01 7.472586632E-02
 2.714953125E-01 1.107354015E-01
 8.369045258E-01 6.464210898E-02
 9.861146212E-01 1.680490933E-02
 9.996095896E-01 1.962330891E-03
 6.600568891E-01 9.471563250E-02
 9.991852045E-01 5.487810820E-03
 9.192219973E-01 4.350830987E-02
 3.614087105E-01 1.140180007E-01
 5.036101937E-01 1.097773015E-01
 -7.032123860E-03 -1.515427046E-02
 9.991852045E-01 -5.487810820E-03
 2.289688960E-02 -4.879796132E-02
 -4.989387933E-03 1.943331957E-02
 4.557265043E-01 1.122943982E-01
 8.811182976E-01 5.415133014E-02
 6.296064854E-01 9.844048321E-02
 3.924350142E-01 1.138992012E-01
 3.306908906E-01 -1.135504022E-01
 1.206969004E-02 -4.081435874E-02
 1.722848043E-02 -4.513125122E-02
 1.296363026E-01 -9.056416154E-02
 1.769457012E-01 -9.994205087E-02
 2.025683969E-01 -1.037686989E-01
 2.293605953E-01 -1.070040986E-01
 2.572101057E-01 -1.096412987E-01
 9.897626042E-01 -1.445626002E-02
 9.506145716E-01 -3.299375996E-02
 8.811182976E-01 -5.415133014E-02
 8.249769807E-01 -6.720916182E-02
 7.872856855E-01 -7.472586632E-02
 7.188656926E-01 -8.640774339E-02
 6.141713262E-01 -1.001823023E-01
 5.829553008E-01 -1.034066975E-01
 5.513793230E-01 -1.062593982E-01
 4.876407981E-01 -1.107323021E-01
 4.239495993E-01 -1.133605018E-01
 3.855283931E-02 -5.850436166E-02
 -2.738231095E-03 -2.370229922E-02
 2.363921958E-04 -2.827483974E-02
 3.874280956E-03 -3.232162818E-02
 5.325357988E-02 -6.599529833E-02
 6.542164087E-02 -7.135851681E-02
 5.195667148E-01 -1.087109968E-01
 4.557265043E-01 -1.122943982E-01
 6.750419140E-01 -9.274034947E-02
 9.636324048E-01 -2.786366083E-02
 9.929099083E-01 -1.215002034E-02
 9.955444932E-01 -9.886266664E-03
 9.976480007E-01 -7.664597128E-03
 8.065153956E-01 -7.100974023E-02
 8.962069154E-01 -5.016171932E-02
 6.972048283E-01 -8.965545893E-02
 9.277206063E-01 -4.085778818E-02
 9.397183061E-01 -3.690356016E-02
 -1.001244038E-02 -2.196217887E-03
 7.469944954E-01 -8.188533038E-02
 7.674769163E-01 -7.836283743E-02
 1.769457012E-01 9.994205087E-02
 1.296363026E-01 9.056416154E-02
 9.897626042E-01 1.445626002E-02
 3.007130921E-01 1.124449000E-01
 9.636324048E-01 2.786366083E-02
 2.860012949E-01 -1.116703004E-01
 3.081184924E-01 -1.127941012E-01
 1.082359031E-01 8.510787040E-02
 3.306908906E-01 1.135504022E-01
 9.819740057E-01 -1.919545978E-02
 9.861146212E-01 -1.680490933E-02
 7.685068063E-03 3.651303053E-02
 6.449066997E-01 -9.661711752E-02
 6.129071116E-02 6.958851218E-02
 2.870252915E-02 5.265438184E-02
 2.289688960E-02 4.879796132E-02
 1.722848043E-02 4.513125122E-02
 5.672045946E-01 1.048813984E-01
 7.330477834E-01 8.417391777E-02
 9.976480007E-01 7.664598059E-03
 9.955444932E-01 9.886266664E-03
 9.929099083E-01 1.215002034E-02
 9.506145716E-01 3.299375996E-02
 9.796596169E-01 2.040903084E-02
 9.722378850E-01 2.409108914E-02
 9.357910156E-01 3.821935132E-02
 9.009734988E-01 4.882982001E-02
 8.597339988E-01 5.943787843E-02
 8.127226830E-01 6.974806637E-02
 7.606921196E-01 7.954526693E-02
 7.044610977E-01 8.858302981E-02
 6.824914217E-01 9.173487127E-02
 5.986160040E-01 1.018389985E-01
 5.354949236E-01 1.075370982E-01
 4.796549082E-01 1.111816019E-01
 4.239495993E-01 1.133605018E-01
 7.869026810E-02 7.644440979E-02
 4.934737831E-02 6.417211145E-02
 4.199448973E-02 6.042471156E-02
 3.511118889E-02 5.658401176E-02
 3.874280956E-03 3.232162818E-02
 2.363921958E-04 2.827483974E-02
 8.484939933E-01 -6.205176935E-02
 8.652647734E-01 -5.812453106E-02
 -8.415496908E-03 1.083570998E-02
 -9.462947957E-03 6.562300958E-03
 9.313283861E-02 8.126509935E-02
 1.960113943E-01 1.028855965E-01
 1.526008993E-01 9.553478658E-02
 2.431605011E-01 1.083974987E-01
 9.813773632E-02 -8.249294013E-02
 1.133292019E-01 -8.649495989E-02
 1.000516057E+00 9.573718901E-11
 1.000211000E+00 5.910000764E-04
 1.000162959E+00 1.074229949E-03
 -1.519577019E-02 5.266928005E-10
 -1.494930033E-02 5.035167094E-03
 1.745833084E-02 -5.719244853E-02
 6.748219132E-01 1.199275032E-01
 -1.308052987E-02 -1.471090969E-02
 9.627226740E-02 1.005273014E-01
 6.629420072E-02 -8.893337101E-02
 5.993715953E-03 -4.776081070E-02
 9.991469979E-01 -1.119042002E-02
 9.079387784E-01 -6.469205767E-02
 6.897943020E-01 -1.175708994E-01
 8.044095337E-02 9.524442255E-02
 -2.057408914E-03 -3.776017949E-02
 4.407852888E-01 1.410650015E-01
 5.376595855E-01 -1.358596981E-01
 8.202605247E-01 -9.103780985E-02
 9.822652936E-01 -2.864236943E-02
 8.013039827E-01 -9.565424919E-02
 4.730738103E-01 -1.399150044E-01
 5.054048896E-01 -1.381686032E-01
 4.407852888E-01 -1.410650015E-01
 7.782846093E-01 1.008391976E-01
 2.029211074E-01 1.272321939E-01
 9.476894736E-01 4.833400995E-02
 1.368573010E-01 1.127367988E-01
 -7.262504194E-03 2.989934944E-02
 9.971429110E-01 1.441156957E-02
 8.750963211E-01 7.568576932E-02
 4.933004081E-01 1.389297992E-01
 9.999402165E-01 7.652129978E-03
 5.537195206E-01 1.345036030E-01
 9.733517766E-01 -3.458705917E-02
 5.993715953E-03 4.776081070E-02
 3.185079098E-01 -1.399352998E-01
 2.957282960E-01 -1.384415030E-01
 -1.418489031E-02 -9.984772652E-03
 1.000211000E+00 -5.910001928E-04
 1.000162959E+00 -1.074229949E-03
 -1.152705960E-02 -1.992717013E-02
 -1.494930033E-02 -5.035170820E-03
 8.293499947E-01 8.867956698E-02
 9.913557768E-01 2.093832009E-02
 9.945663810E-01 1.771122031E-02
 3.770273030E-01 -1.415220946E-01
 9.999402165E-01 -7.652129978E-03
 -9.557403624E-03 2.457020991E-02
 -1.152706984E-02 1.992717944E-02
 6.972339749E-01 1.163524985E-01
 6.171470284E-01 1.278229058E-01
 3.456341922E-01 -1.410914063E-01
 1.368573010E-01 -1.127367988E-01
 1.609632969E-01 -1.187841967E-01
 1.864255071E-01 -1.241628975E-01
 2.131305039E-01 -1.288550049E-01
 2.409629971E-01 -1.328471005E-01
 8.933299780E-01 -6.980869174E-02
 6.014429927E-01 -1.296736002E-01
 5.697137117E-01 -1.330180019E-01
 5.333314836E-02 -8.229982853E-02
 2.749085054E-02 -6.591270119E-02
 -9.557403624E-03 -2.457020991E-02
 -7.262505125E-03 -2.989934944E-02
 3.979694843E-02 -7.423316687E-02
 4.086700976E-01 -1.415826976E-01
 9.614651203E-01 -4.144551978E-02
 9.945663810E-01 -1.771122031E-02
 9.971429110E-01 -1.441156957E-02
 7.119070292E-01 -1.138542965E-01
 9.236388803E-01 -5.869131908E-02
 9.382582903E-01 -5.265206844E-02
 9.496548772E-01 -4.745768011E-02
 7.369670272E-01 -1.092555001E-01
 7.614188194E-01 -1.044477001E-01
 7.817100286E-01 -1.001204997E-01
 2.845888138E-01 1.374899000E-01
 2.698107064E-01 -1.361259967E-01
 -1.418489963E-02 9.984767064E-03
 3.456341922E-01 1.410914063E-01
 3.147185147E-01 1.396635026E-01
 9.875224233E-01 -2.402446978E-02
 9.913557768E-01 -2.093832009E-02
 6.327241063E-01 -1.258583069E-01
 6.634380817E-01 -1.216036007E-01
 1.745833084E-02 5.719244108E-02
 9.991469979E-01 1.119042002E-02
 9.614651203E-01 4.144551978E-02
 9.866070151E-01 2.526937984E-02
 9.799404740E-01 3.029610030E-02
 9.720765948E-01 3.542429954E-02
 9.320967197E-01 5.524358898E-02
 9.147518873E-01 6.212894991E-02
 8.957266808E-01 6.895547360E-02
 8.529319763E-01 8.227475733E-02
 8.044350147E-01 9.487880021E-02
 7.509999871E-01 1.065258011E-01
 7.226914167E-01 1.119041964E-01
 6.481596231E-01 1.237839013E-01
 5.856267810E-01 1.314067990E-01
 5.215495825E-01 1.370826066E-01
 4.690111876E-01 1.401340961E-01
 4.086700976E-01 1.415826976E-01
 3.770273924E-01 1.415220946E-01
 6.416610628E-02 8.779814094E-02
 4.933667183E-02 8.007162064E-02
 3.659174964E-02 7.075780630E-02
 2.618947066E-02 6.394343823E-02
 -2.057408914E-03 3.776017949E-02
 8.413127065E-01 -8.550176024E-02
 8.615037203E-01 -7.983554900E-02
 8.778815269E-01 -7.485131174E-02
 -1.308054011E-02 1.471090969E-02
 1.142828017E-01 1.060867012E-01
 1.830572933E-01 1.235741004E-01
 1.609632969E-01 1.187841967E-01
 2.552641928E-01 1.345779002E-01
 2.269133031E-01 1.309393048E-01
 8.323580027E-02 -9.611783922E-02
 1.011388004E-01 -1.019351035E-01
 1.168816015E-01 -1.069682017E-01
 1.001991987E+00 5.722489208E-03
 1.000563025E+00 3.993150021E-04
 9.998949766E-01 -3.233873053E-03
 -2.157614939E-02 2.835931024E-03
 -1.916472986E-02 -1.936231926E-02
 3.049753010E-01 -1.718655974E-01
 -1.253714971E-02 3.904569894E-02
 4.252862036E-01 1.759700030E-01
 6.939314008E-01 -1.500447989E-01
 -2.106292918E-02 -8.513175882E-03
 1.000020027E+00 1.931376942E-02
 9.998949766E-01 3.233873053E-03
 4.581736028E-01 -1.754188985E-01
 6.662849784E-01 1.550025940E-01
 6.370522976E-01 1.595802009E-01
 6.669904292E-02 -1.115458012E-01